pynof
Energy PNOF8 CC-PVDZ
Number of atoms                            I                3
Charge                                     I                0
Multiplicity                               I                1
Number of electrons                        I               10
Number of alpha electrons                  I                5
Number of beta electrons                   I                5
Number of basis functions                  I               24
Number of independant functions            I               20
Number of contracted shells                I               12
Highest angular momentum                   I                2
Largest degree of contraction              I                8
Number of primitive shells                 I               32
Atomic numbers                             I   N=           3
           8           1           1
Nuclear Charges                            R   N=           3
  8.00000000e+00  1.00000000e+00  1.00000000e+00
Current cartesian coordinates              R   N=           9
  0.00000000e+00  0.00000000e+00  1.20336934e-01  0.00000000e+00  1.41540487e+00
 -9.54917232e-01  0.00000000e+00 -1.41540487e+00 -9.54917232e-01
Shell types                                I   N=          12
           0           0           0           1           1          -2
           0           0           1           0           0           1
Number of primitives per shell             I   N=          12
           8           8           1           3           1           1
           3           1           1           3           1           1
Shell to atom map                          I   N=          12
           1           1           1           1           1           1
           2           2           2           3           3           3
Coordinates of each shell                  R   N=          36
  0.00000000e+00  0.00000000e+00  1.20336934e-01  0.00000000e+00  0.00000000e+00
  1.20336934e-01  0.00000000e+00  0.00000000e+00  1.20336934e-01  0.00000000e+00
  0.00000000e+00  1.20336934e-01  0.00000000e+00  0.00000000e+00  1.20336934e-01
  0.00000000e+00  0.00000000e+00  1.20336934e-01  0.00000000e+00  1.41540487e+00
 -9.54917232e-01  0.00000000e+00  1.41540487e+00 -9.54917232e-01  0.00000000e+00
  1.41540487e+00 -9.54917232e-01  0.00000000e+00 -1.41540487e+00 -9.54917232e-01
  0.00000000e+00 -1.41540487e+00 -9.54917232e-01  0.00000000e+00 -1.41540487e+00
 -9.54917232e-01
Total Energy                               R     -7.602661729018460e+01
Primitive exponents                        R   N=          32
  1.17200000e+04  1.75900000e+03  4.00800000e+02  1.13700000e+02  3.70300000e+01
  1.32700000e+01  5.02500000e+00  1.01300000e+00  1.17200000e+04  1.75900000e+03
  4.00800000e+02  1.13700000e+02  3.70300000e+01  1.32700000e+01  5.02500000e+00
  1.01300000e+00  3.02300000e-01  1.77000000e+01  3.85400000e+00  1.04600000e+00
  2.75300000e-01  1.18500000e+00  1.30100000e+01  1.96200000e+00  4.44600000e-01
  1.22000000e-01  7.27000000e-01  1.30100000e+01  1.96200000e+00  4.44600000e-01
  1.22000000e-01  7.27000000e-01
Contraction coefficients                   R   N=          32
  7.10000000e-04  5.47000000e-03  2.78370000e-02  1.04800000e-01  2.83062000e-01
  4.48719000e-01  2.70952000e-01  1.54580000e-02 -1.60000000e-04 -1.26300000e-03
 -6.26700000e-03 -2.57160000e-02 -7.09240000e-02 -1.65411000e-01 -1.16955000e-01
  5.57368000e-01  1.00000000e+00  4.30180000e-02  2.28913000e-01  5.08728000e-01
  1.00000000e+00  1.00000000e+00  1.96850000e-02  1.37977000e-01  4.78148000e-01
  1.00000000e+00  1.00000000e+00  1.96850000e-02  1.37977000e-01  4.78148000e-01
  1.00000000e+00  1.00000000e+00
Alpha Orbital Energies                     R   N=          24
 -1.43293765e+01 -3.82789849e+00 -2.71930753e+00 -1.47964836e+00 -1.29179295e+00
  0.00000000e+00  0.00000000e+00  0.00000000e+00  0.00000000e+00  0.00000000e+00
  0.00000000e+00  0.00000000e+00  0.00000000e+00  0.00000000e+00  0.00000000e+00
  0.00000000e+00  0.00000000e+00  0.00000000e+00  0.00000000e+00  0.00000000e+00
  0.00000000e+00  0.00000000e+00  0.00000000e+00  0.00000000e+00
Alpha MO coefficients                      R   N=         576
  8.30543111e-01 -2.16456750e-01 -2.35050288e-01 -5.70096691e-02  1.43008833e-01
 -9.69643576e-02 -4.56107804e-02  6.35980633e-02 -9.13236673e-02  3.73533377e-03
  2.33554913e-03 -8.16587644e-03 -1.23407083e-04 -8.36039183e-04  6.26335423e-02
  2.92455802e-02 -1.97121841e-03  1.88546360e-03 -9.65060357e-04 -1.30845179e-01
 -1.92983088e-02 -2.63749529e-03 -1.58963658e-02 -2.07738318e-02  3.94259113e-01
  9.10265922e-02  6.50067112e-02 -9.18901958e-02 -4.32775916e-01 -2.83933115e-02
 -6.95196056e-02 -1.92593798e-01 -1.24952470e-03  2.86540181e-04  2.36779637e-03
  2.44521578e-02  5.39416943e-04  1.12441994e-03 -2.45460733e-01 -7.09437828e-02
 -5.33165830e-03  1.27136909e-02 -2.49391626e-02  3.38531293e-01  7.89977422e-02
 -4.47853726e-03  3.02725790e-02  3.30036655e-02 -3.14946191e-01 -2.87884066e-01
 -4.26165391e-01  9.23555454e-02 -1.15807328e-01 -4.25099658e-01  7.28290658e-02
 -4.91862058e-02 -3.05524182e-01  1.52954106e-02 -3.08903608e-03  6.71367846e-03
 -2.40019457e-03  6.47646503e-04  1.55788063e-02  5.54727902e-03  3.18344590e-03
 -6.18396734e-03 -2.26422203e-02  1.75817252e-01  4.81986313e-02  3.65067465e-03
  1.93255865e-02 -6.86492096e-03  1.36839050e-01  2.73794895e-01  1.11119397e-01
 -6.20200195e-02  1.37292637e-01 -3.43947900e-01 -4.53453285e-02  6.43365139e-02
 -1.73516575e-01  9.22973879e-03  5.44787369e-04 -7.34338167e-03 -2.68817145e-03
  6.34402903e-04  3.55137754e-01  4.61691725e-02 -3.00922161e-03 -5.31630720e-02
  2.16651415e-02  1.73056967e-01  4.12955055e-03 -2.92672927e-03  4.21509103e-02
  5.24836451e-03  1.97270550e-01  6.43504282e-02  6.35100870e-02  6.11923502e-01
 -1.92956809e-02  1.56458979e-02  4.80782691e-01 -8.04404538e-03  1.94995662e-02
 -1.93156784e-04 -1.99565002e-02  2.46446809e-04 -7.97388728e-04  3.86376407e-04
 -1.28640824e-03 -3.65149245e-03  2.90267289e-02 -7.59879699e-04  2.81196235e-03
  2.80770967e-02  4.05925512e-03  2.97493496e-02  3.94826275e-03  3.40929312e-03
 -8.41759770e-03 -5.62155521e-03  1.59593272e-01 -2.24305510e-02  5.19059563e-02
  3.97283761e-02  4.99881396e-02  1.89163788e-01 -1.22255354e-01  5.84607638e-02
 -6.67059569e-02 -1.30783860e-01 -8.90454647e-02  8.37687126e-01 -2.22063551e-01
 -1.90058719e-02  1.66237425e-01  4.33523652e-02 -1.60389223e-01  1.14229005e-01
 -1.02138402e-01 -2.31631356e-01 -2.31955593e-02  1.24367278e-01 -2.80217242e-02
 -5.49320651e-02  1.03434063e-01  5.17760471e-02 -3.62952320e-01 -1.45639653e-02
 -4.23154801e-02  1.13492482e+00 -1.89056553e-03  2.76349566e-02 -6.31831422e-02
 -4.75398717e-01  1.32632651e-02  2.49651440e-02 -7.45223911e-01 -3.04238798e-01
 -2.78022459e-02 -1.25294566e-01  3.23129500e-01  6.72266645e-01  2.68742891e-01
 -1.23173540e-02 -7.19523222e-02 -3.56461483e-01 -3.09234943e-02 -8.33466821e-02
 -1.94430990e-01  4.88879836e-02 -9.28099000e-01  8.55872191e-03 -2.91816446e-03
 -1.41198005e-01  1.62521392e-01 -7.47271536e-02  1.90681844e-02 -2.37304539e-01
  1.15677993e-01  1.88218625e-02  8.34802259e-01 -4.80179001e-02 -6.55091470e-02
 -3.26347205e-01  2.50824468e-01 -5.65632206e-01  7.77958038e-02 -4.31822590e-02
 -6.83252571e-02 -1.18881844e-01  5.46200182e-02  1.19617345e-01 -2.94537349e-01
  5.28815081e-02  6.45101197e-01 -9.89441762e-02 -9.51171171e-02 -7.39094158e-01
  2.46950550e-01 -3.95078316e-02  6.58939177e-02 -6.70396084e-01  1.05808186e-01
 -2.12634555e-02  7.51822156e-02  1.12639175e-01  4.64111903e-02 -1.29933257e-01
 -8.43021777e-02  7.38957928e-02  2.02946743e-02  4.73413132e-02  4.73021080e-02
 -7.72093890e-03 -1.05413809e-02 -5.25196349e-02 -3.28656502e-01 -1.05847419e-01
  2.56299133e-01  1.42365259e-01  1.19005448e-01 -9.23410514e-01  6.31019554e-02
  6.62764929e-02  1.53485290e-02 -1.89873808e-01  3.87452747e-02  1.13835065e-01
  2.66973278e-01  5.48254373e-01 -5.03977227e-02  5.30965709e-01  5.68223727e-01
  4.01848622e-02 -4.01987668e-01  3.52139115e-02  7.46311113e-01 -3.55247024e-01
 -1.70276683e-02 -2.73526727e-02  1.36764886e-01 -2.65768699e-01 -6.21120580e-02
 -5.73061084e-02  7.43035477e-02 -2.56404306e-01 -4.65609385e-02  4.79542493e-03
 -8.45302088e-01  6.96105403e-02  1.05296115e-02 -5.42012379e-02  6.60824475e-02
  1.09090438e-01  2.24053074e-01 -6.05277122e-02  7.53818675e-02 -2.97928047e-01
 -5.59507471e-02  1.80760306e-01 -1.19187258e-01 -9.08398682e-02 -4.60877685e-01
 -9.45329655e-01  1.74834807e+00  2.08189130e-01  8.18272464e-02  1.82785076e-01
 -2.29878159e-01  1.01104335e-02 -8.40580373e-01 -2.08590802e-01 -2.61725608e-02
 -1.97125979e-02 -5.93826605e-01 -2.78056958e-02 -9.82158676e-01 -1.14281552e-01
  1.46628406e-02 -1.20263875e-01 -9.69443859e-02 -1.01458957e+00  1.71649053e-01
  3.64811090e-04  2.71909942e-01 -1.37144385e-02  1.23989089e-01  4.33797556e-01
  1.47295058e-01 -5.99474256e-03  3.20647240e-02 -6.75015234e-01  1.59706541e-02
  9.66818210e-02  1.91880915e-01 -8.58011233e-02  3.86894021e-02  1.11970547e-01
  3.51816773e-01  1.20641325e-01 -4.60882972e-01 -2.16153739e-01 -5.87460977e-02
  1.25967754e-01 -6.80968437e-02 -5.13400016e-01  2.04326633e-01  3.88007470e-02
  1.73777630e-01 -5.50286462e-02  1.54452760e-01  3.39298918e-01 -5.35177397e-01
  8.38681896e-01  1.37522457e-01  7.09330242e-02 -7.74219217e-01  2.24968802e-01
  7.85833725e-02  3.96647393e-02 -3.67484115e-01 -1.37867310e-01  1.57370493e-01
 -7.72591643e-03  6.62907256e-02 -1.61841621e-01 -1.56989705e-01  2.80219594e-01
 -1.23587491e-01  3.80384444e-01  1.66987114e-01 -1.52159560e-01  2.27057276e-01
  1.50506349e-01 -3.18632115e-01 -6.90434888e-01  6.06012288e-01 -1.80026869e-02
  8.82023630e-02  3.09519633e-01  2.63712897e-02 -5.04243538e-02 -3.97240535e-02
 -9.56019411e-03 -4.06602351e-02  1.68295917e-02  2.98936801e-01 -5.79459403e-02
  6.55354965e-01 -8.26450694e-01  1.75615123e-02 -2.93057888e-01  2.59757514e-01
  6.77642032e-01 -8.03366193e-01 -3.47178750e-02  2.88995043e-01  2.92310026e-01
  2.95489925e-01  7.32466274e-01 -8.42207525e-01  3.37461451e-02 -1.06212202e-01
 -2.21971035e-01 -6.55377655e-02 -2.37383257e-01  3.13550466e-01  4.85469063e-01
  7.42662702e-03  1.21639182e-01 -6.09759031e-01 -8.16358742e-02  2.83907588e-01
  1.36762959e-02  6.45833140e-02 -1.91281701e-01  1.49607664e-01 -1.61079428e-01
 -2.30936583e-02  1.65296631e-03 -3.75842080e-02 -8.84856011e-02 -7.42689966e-03
 -1.29386960e-03  1.70301939e-01 -3.85900749e-02  4.57592437e-02  5.62782009e-02
  7.04890344e-02  2.02917076e-01 -1.48695761e-01  6.98488506e-02 -6.86527495e-02
 -1.19004823e-01 -8.54997876e-02  5.95437184e-01 -2.26988664e-01 -3.29620973e-02
 -7.86094544e-01  4.79441669e-02 -1.56320531e-01  1.15281757e-01 -1.05670025e-01
  7.11874617e-01 -2.82854809e-02  1.23307573e-01  1.14933458e-01  2.46061351e-01
 -5.50591899e-01  1.49475023e-02  6.83708591e-02 -2.91873385e-01  7.96320882e-03
  8.03613880e-02  3.24813535e-01 -6.57001719e-01 -4.34646525e-02 -1.13455431e-01
 -2.87158491e-01  4.03083459e-02  4.98276406e-02  6.30597502e-02 -5.19435513e-02
  1.36870558e-01  2.05475150e-01  3.14043088e-01  2.29828336e-02 -7.75269486e-03
 -1.69097645e-02  2.39472578e-01  3.79861472e-01  1.00174663e+00 -5.95805274e-01
 -9.48707667e-02 -7.22257829e-02  5.40074110e-01  8.19124152e-02 -2.02353321e-01
 -9.05999045e-01 -2.34238401e-01  4.17954577e-02  3.57412016e-02  1.84650481e-02
 -5.39275308e-02 -1.82402045e-01  1.43241529e-01  5.26160966e-02 -5.37402267e-02
  6.20654305e-02 -3.74837143e-01 -1.73332391e-01 -3.99129072e-03 -1.64804288e-01
 -1.42370710e-01  3.13628451e-02  4.70091297e-02 -3.39509495e-01  1.77697564e-01
 -5.11638648e-02  4.94018006e-02 -8.90752180e-01  2.02567331e-01  1.70392839e-01
 -6.73054300e-02  4.88838955e-01 -2.97327224e-02  7.13408024e-02  9.46670578e-02
  1.55272117e-01 -1.15589369e-01  7.85415591e-01 -5.43700786e-03 -1.18201638e-02
  2.49439084e-01  1.51999193e-01  8.66392683e-01  1.60967225e-01  5.82297654e-02
  2.01157608e-02  8.99940943e-03 -2.89720435e-01 -1.26319984e-02 -8.85997089e-02
  1.35005297e-01  4.89919365e-02 -2.46874778e-01  3.74154546e-02 -3.87429087e-02
 -1.15617819e-02  4.52903969e-01  4.61134517e-02  1.83586490e-01  1.00044416e+00
 -1.22536704e+00 -1.09724314e-01 -4.21572284e-02  3.36044625e-01 -6.49515036e-01
  1.32168714e+00  2.66920105e-02 -6.25028150e-03 -2.27395946e-01 -1.73933906e-01
 -3.29253553e-01  6.77185116e-01  4.06472044e-02  1.98311276e-03  5.45519571e-02
 -7.99393558e-02 -7.67221733e-02 -9.85169045e-01  6.43641602e-01  5.69955108e-02
 -2.31487559e-02  2.17560687e-01 -1.28171019e-02 -5.78918064e-01  1.59438679e-01
  5.05169267e-02  3.24916092e-01  7.02092905e-01 -6.36945832e-01  8.22309268e-02
  3.66049287e-02 -4.69791996e-01  6.75567005e-01 -2.05509358e-01 -2.95798130e-01
  3.41859863e+00  5.76559863e-02 -6.95648822e-02 -5.51013167e-01 -1.01235661e-01
 -3.66382982e-01 -1.21132154e+00  1.05208078e-01  5.22077420e-02  3.89987535e-02
 -5.62916073e-01 -2.29084983e-02 -9.61891044e-01 -6.41853157e-01  5.65914298e-02
  1.00641517e+00 -4.49293683e-01 -1.40831023e+00 -8.50982980e-01  3.80309961e-02
 -1.07211207e+00 -7.95540689e-01  2.75196265e-02  9.23992572e-02  2.63761437e-01
 -2.26659287e-01  3.52841535e-01  7.77316112e-03  2.40046352e-01  1.70110931e+00
 -2.35320244e-01  1.05633747e-01 -2.37911717e-02 -8.58039736e-01 -1.21437097e-01
 -1.51971715e-01 -9.82030778e-01 -1.27207189e+00  6.20616603e-02  9.47331685e-01
 -7.71921684e-01  6.92449067e-01  1.11498953e+00 -6.00926956e-02  6.71139371e-01
  6.88918545e-01
Total SCF Density                          R   N=          300
  2.00414761e+00 -6.12066265e-03  4.34242445e-01 -1.52732007e-02  4.27985222e-01
  5.14945005e-01 -8.73673882e-04 -4.30477853e-04  7.92206203e-05  7.97040624e-01
 -7.94492298e-04 -1.32384342e-03  3.27174700e-03  1.19431164e-03  4.80758898e-01
 -3.64582340e-03  9.52382044e-02  3.29765791e-01 -4.35179598e-04  2.54849971e-04
  6.18925876e-01  8.23119983e-04  2.20310704e-03  1.32032767e-03  6.25458279e-01
 -7.46164210e-04 -2.88878346e-03  4.90851173e-01 -8.06048183e-04 -8.01819041e-05
  2.61965384e-04  1.23333221e-03  2.14258620e-01 -4.08719116e-03  2.42607989e-04
  9.55205221e-02 -2.87099046e-05  1.22712561e-01  2.67091242e-01 -4.03914269e-04
 -2.67238658e-03  3.97509188e-01 -1.51122109e-03 -3.72017872e-03  2.64349668e-01
 -7.54039909e-04 -5.34226954e-03 -1.27288065e-02  9.65419708e-04 -1.80480657e-04
 -2.00999505e-02  8.24533676e-04  5.08278020e-05 -1.32397587e-02  6.66419592e-04
 -3.22038093e-05 -1.07155601e-03 -5.71022383e-04 -2.57633099e-02  2.53762962e-04
  1.03967549e-03 -2.02310991e-02  8.00643681e-05  4.87705912e-04 -5.79251446e-05
  8.38324173e-04 -4.24637042e-04  1.31746323e-04 -3.05063434e-04 -1.11018190e-03
 -2.70810764e-02 -4.53729209e-04 -7.74052047e-04 -1.20666365e-02 -1.14005733e-04
  2.27352453e-05  1.83366649e-05  1.52729805e-03  6.81918280e-04 -4.10571483e-05
  1.47520446e-03 -1.17084693e-03 -6.53629666e-04  3.85817441e-03 -9.36299938e-04
 -3.20427388e-04  2.38961405e-03 -1.23350925e-04  4.57038005e-05  3.52545113e-05
  2.78584569e-05 -5.83991598e-04  5.90862189e-04  1.77269671e-04  4.02480036e-04
 -1.20308323e-03 -8.76661301e-04  3.28253078e-04 -5.27749623e-04 -4.50943482e-04
  2.57721343e-05 -1.73118454e-05  6.82122708e-05 -5.71649851e-06  5.86896296e-06
 -2.63763452e-03  1.13532652e-01  4.12643577e-03 -4.77865475e-03  3.24330249e-01
 -2.55790670e-01 -2.76032479e-03  1.46699995e-01 -1.43640578e-01  7.35996848e-03
 -5.27788088e-04 -1.80342807e-02 -2.26234534e-03 -1.86944189e-04  3.81082220e-01
  3.39603267e-04 -3.95847725e-03 -1.79033568e-02  5.32464401e-04  8.13037336e-02
 -3.82330343e-02  3.05885112e-04  3.65003631e-02 -2.47186294e-02  1.20119276e-03
 -3.75765908e-05 -4.55247894e-03 -3.52781863e-04 -1.45498745e-04  7.14664014e-02
  1.61280449e-02  1.14497769e-03  1.37740829e-04  5.38349206e-04  3.76901682e-02
  1.36722166e-03  9.56808572e-04  2.95688279e-02  6.35603738e-04  6.04439353e-04
  1.28403601e-05 -1.21594649e-03 -1.27299569e-04 -5.06597938e-05  1.40418496e-05
  2.57628449e-04  1.86667784e-04  1.78810603e-03  2.20275624e-03 -2.41504960e-02
 -5.87403841e-03  1.97061927e-03 -2.36012570e-02  4.07168676e-02  1.25027830e-03
 -1.08774290e-02  2.18222698e-02 -1.14886999e-03  7.96229831e-05  1.28834601e-03
  3.29970795e-04 -5.06124510e-05 -4.39563878e-02 -6.66568078e-03  9.34692029e-05
  6.06064802e-03  3.28388207e-05  2.11397148e-02  2.16819217e-02  1.26516211e-03
  3.23947950e-02  6.03839542e-03  9.96592041e-04  1.44533542e-02  6.66522331e-03
 -3.15305005e-04 -7.13524018e-05 -1.82470153e-03 -3.89392389e-05 -5.41370273e-05
  2.67977871e-02  5.21089173e-03  1.58432023e-04 -2.66558375e-03  3.22569760e-03
 -2.71350764e-03  1.15423148e-01 -2.30412038e-03 -1.92505867e-03 -3.24726905e-01
 -2.61495697e-01  1.77930416e-03 -1.42520565e-01 -1.43341850e-01  7.77859357e-03
 -1.02633870e-03  1.85255256e-02 -1.42166807e-03  1.44909326e-03 -5.42589388e-02
 -3.79613054e-02 -1.38616906e-03 -1.25030900e-02 -1.69381020e-02  3.86745281e-01
  2.60676453e-03 -2.23121762e-03 -2.03049105e-02  1.04064376e-03 -8.40825456e-02
 -4.44356412e-02  1.32588821e-03 -3.71589800e-02 -2.73991129e-02  1.45019772e-03
 -1.71335381e-04  4.76703700e-03 -1.70059137e-04  2.80729306e-04 -3.67747011e-02
 -1.14511641e-02 -2.48619772e-04  8.94567436e-04 -5.88391152e-03  7.71421380e-02
  1.79394136e-02  7.24311924e-04  4.50652934e-04  6.74370504e-04  3.85697968e-02
  3.24781460e-04  6.06201334e-04  3.02664109e-02  1.75270791e-04  4.38055701e-04
  2.38882522e-05 -1.24665735e-03 -6.92785220e-05 -5.34137774e-05  1.83427215e-05
 -1.73358693e-04  3.41728237e-05  1.82606463e-03  9.70013989e-05  1.03645958e-04
 -4.00770811e-04 -3.65269784e-05  1.86786130e-03 -1.61426071e-03  2.48554669e-02
  4.80601660e-03 -5.77694174e-04 -2.38035663e-02 -4.39388020e-02  2.97636428e-05
 -1.02235173e-02 -2.34548762e-02  1.26633623e-03 -1.61950195e-04  1.38245245e-03
 -2.89102151e-04  1.76222800e-04  1.36779899e-02 -1.14737938e-03 -1.61564313e-04
 -4.01695338e-03 -5.05796398e-04  4.62626282e-02  7.63959301e-03 -5.80098169e-05
  6.66977958e-03 -1.37750391e-03  2.22670271e-02  2.15073325e-02 -1.44338923e-03
 -3.16084954e-02  4.48738191e-03 -8.91433208e-04 -1.40591607e-02  6.21820893e-03
 -2.50719197e-04 -2.86893457e-05  1.78571595e-03  4.00329695e-05  1.09357046e-04
 -1.52993665e-02 -5.51433127e-03 -1.47402954e-04  2.82545425e-04 -1.04861073e-03
  2.73758937e-02  5.42549533e-03 -6.40302886e-05  2.86270000e-03  3.21417955e-03
Natural orbital occupancies                R   N=           20
  1.00000000e+00  1.00000000e+00  1.00000000e+00  1.00000000e+00  1.00000000e+00
  0.00000000e+00  0.00000000e+00  0.00000000e+00  0.00000000e+00  0.00000000e+00
  0.00000000e+00  0.00000000e+00  0.00000000e+00  0.00000000e+00  0.00000000e+00
  0.00000000e+00  0.00000000e+00  0.00000000e+00  0.00000000e+00  0.00000000e+00
