pynof
Energy PNOF8 CC-PVDZ
Number of atoms                            I                3
Charge                                     I                0
Multiplicity                               I                1
Number of electrons                        I               10
Number of alpha electrons                  I                5
Number of beta electrons                   I                5
Number of basis functions                  I               24
Number of independant functions            I               20
Number of contracted shells                I               12
Highest angular momentum                   I                2
Largest degree of contraction              I                8
Number of primitive shells                 I               32
Atomic numbers                             I   N=           3
           8           1           1
Nuclear Charges                            R   N=           3
  8.00000000e+00  1.00000000e+00  1.00000000e+00
Current cartesian coordinates              R   N=           9
  0.00000000e+00  0.00000000e+00  1.20336934e-01  0.00000000e+00  1.41540487e+00
 -9.54917232e-01  0.00000000e+00 -1.41540487e+00 -9.54917232e-01
Shell types                                I   N=          12
           0           0           0           1           1          -2
           0           0           1           0           0           1
Number of primitives per shell             I   N=          12
           8           8           1           3           1           1
           3           1           1           3           1           1
Shell to atom map                          I   N=          12
           1           1           1           1           1           1
           2           2           2           3           3           3
Coordinates of each shell                  R   N=          36
  0.00000000e+00  0.00000000e+00  1.20336934e-01  0.00000000e+00  0.00000000e+00
  1.20336934e-01  0.00000000e+00  0.00000000e+00  1.20336934e-01  0.00000000e+00
  0.00000000e+00  1.20336934e-01  0.00000000e+00  0.00000000e+00  1.20336934e-01
  0.00000000e+00  0.00000000e+00  1.20336934e-01  0.00000000e+00  1.41540487e+00
 -9.54917232e-01  0.00000000e+00  1.41540487e+00 -9.54917232e-01  0.00000000e+00
  1.41540487e+00 -9.54917232e-01  0.00000000e+00 -1.41540487e+00 -9.54917232e-01
  0.00000000e+00 -1.41540487e+00 -9.54917232e-01  0.00000000e+00 -1.41540487e+00
 -9.54917232e-01
Total Energy                               R     -7.602696796681842e+01
Primitive exponents                        R   N=          32
  1.17200000e+04  1.75900000e+03  4.00800000e+02  1.13700000e+02  3.70300000e+01
  1.32700000e+01  5.02500000e+00  1.01300000e+00  1.17200000e+04  1.75900000e+03
  4.00800000e+02  1.13700000e+02  3.70300000e+01  1.32700000e+01  5.02500000e+00
  1.01300000e+00  3.02300000e-01  1.77000000e+01  3.85400000e+00  1.04600000e+00
  2.75300000e-01  1.18500000e+00  1.30100000e+01  1.96200000e+00  4.44600000e-01
  1.22000000e-01  7.27000000e-01  1.30100000e+01  1.96200000e+00  4.44600000e-01
  1.22000000e-01  7.27000000e-01
Contraction coefficients                   R   N=          32
  7.10000000e-04  5.47000000e-03  2.78370000e-02  1.04800000e-01  2.83062000e-01
  4.48719000e-01  2.70952000e-01  1.54580000e-02 -1.60000000e-04 -1.26300000e-03
 -6.26700000e-03 -2.57160000e-02 -7.09240000e-02 -1.65411000e-01 -1.16955000e-01
  5.57368000e-01  1.00000000e+00  4.30180000e-02  2.28913000e-01  5.08728000e-01
  1.00000000e+00  1.00000000e+00  1.96850000e-02  1.37977000e-01  4.78148000e-01
  1.00000000e+00  1.00000000e+00  1.96850000e-02  1.37977000e-01  4.78148000e-01
  1.00000000e+00  1.00000000e+00
Alpha Orbital Energies                     R   N=          24
 -1.90473079e+01 -2.26683102e+00 -1.06218621e+00 -7.25609175e-01 -5.61374210e-01
  0.00000000e+00  0.00000000e+00  0.00000000e+00  0.00000000e+00  0.00000000e+00
  0.00000000e+00  0.00000000e+00  0.00000000e+00  0.00000000e+00  0.00000000e+00
  0.00000000e+00  0.00000000e+00  0.00000000e+00  0.00000000e+00  0.00000000e+00
  0.00000000e+00  0.00000000e+00  0.00000000e+00  0.00000000e+00
Alpha MO coefficients                      R   N=         576
  9.63717194e-01 -1.26091352e-01 -1.19985341e-01 -2.17245616e-02 -1.30215647e-02
 -9.30029470e-03 -1.70585091e-02 -5.69197223e-03 -2.34615276e-02  6.74928409e-04
  6.31899312e-04  7.24845907e-04  4.63814866e-04  3.07966710e-08 -5.22349163e-02
 -2.50898853e-03 -1.09149255e-03  9.97978621e-03 -7.34909634e-03 -3.46482790e-02
  2.03095765e-03 -1.09127494e-03 -8.73010078e-03 -5.61771231e-03  2.24422474e-01
  3.40967503e-01  1.96529759e-01 -1.76342132e-02  3.25471411e-03 -2.76604282e-01
 -1.38463949e-02  1.42178232e-03 -1.21856772e-01  7.67026291e-03  5.13083690e-04
 -1.80699941e-04 -4.72326990e-03  7.39956030e-07  2.57733430e-01  2.29955752e-02
 -8.86314937e-04 -4.64560587e-02  1.53359517e-02  2.53336257e-01  2.18605650e-02
 -8.85494934e-04  4.61440432e-02  1.49025450e-02 -1.37709559e-01 -2.88727938e-01
 -4.48363374e-01  7.40658867e-02  1.06241112e-02 -4.77781802e-01  5.81553729e-02
  4.64680848e-03 -3.43087322e-01  1.61810723e-02 -2.15449049e-03 -5.92011306e-04
 -3.15384624e-03  1.28417068e-07  1.27612121e-01  3.23881143e-02  3.72192463e-03
 -1.65817282e-02 -1.40258221e-02  1.13266355e-01  2.86831619e-02  3.72109146e-03
  1.55617387e-02 -1.54364010e-02 -2.78162331e-02 -1.19905279e-03 -5.98012731e-03
 -6.76573966e-03 -4.91394836e-01 -1.25978971e-02 -5.31073292e-03 -2.14788699e-01
 -8.11554598e-03  4.06547907e-04  1.96223878e-04  2.73479397e-02 -1.15059639e-04
 -3.54021583e-07 -3.26271985e-01 -8.48096506e-02 -3.40134965e-04  2.26622501e-02
 -3.27400331e-02  3.37407028e-01  8.65239917e-02 -3.40838422e-04  2.44917072e-02
  3.25924941e-02  5.58089197e-02  3.94127952e-02  5.44039452e-02  6.25443632e-01
 -6.93273843e-03  4.83205445e-02  4.91103992e-01 -3.02834128e-03  3.62895899e-02
 -1.67179325e-03 -1.81860572e-02  3.85517930e-04  2.55124736e-04 -1.30199741e-06
 -1.31907738e-02 -4.19347904e-03  3.14283548e-02  1.24670540e-03  1.48320216e-03
 -3.82240236e-03 -1.77232985e-03  3.14264648e-02 -5.80355513e-04  2.40539320e-03
 -3.44555703e-01 -8.38712392e-01  9.71694711e-01  1.86058790e-02 -2.55402537e-04
  2.05369667e-01 -1.15821566e-02 -8.59924284e-02 -3.17238487e-01 -4.99190359e-01
 -3.56898514e-02  1.54529425e-02  6.24254672e-01  1.69641765e-02 -2.01734569e-02
 -1.67644466e-03 -2.13988480e-02  3.90394915e-02  2.09909270e-02 -1.03513499e-01
 -8.68781399e-02 -5.15038938e-04 -7.09253958e-02 -1.70450167e-02  4.03907186e-01
  1.01844258e+00 -1.07508819e+00 -2.96772028e-04 -1.35775679e-03  6.72651294e-01
  1.00949366e-02 -5.28198607e-02 -7.47250269e-01 -2.00485999e-01 -2.70683428e-02
  1.00074078e-02  1.54943491e-01 -1.02035328e-02  5.05351253e-02  3.00827121e-02
 -1.15795773e-02 -4.79711750e-02  9.44630770e-02 -2.28837070e-03 -1.96328543e-02
 -1.31005448e-02  3.98265863e-02  6.65504391e-02 -1.01479901e-01 -2.50012459e-01
  1.68052891e-01  2.72422486e-02  2.54843435e-03  3.79820366e-01 -3.96301815e-02
  9.49531876e-03 -1.60660790e-01  6.63221755e-01  2.01750582e-02 -1.01405314e-02
  3.66733992e-01  9.53966941e-03  4.14726495e-02  9.42698428e-03 -7.23866565e-04
 -1.80291002e-01 -1.66148895e-01  6.38961621e-02 -2.46711982e-02  2.66759619e-02
  1.57905494e-01 -1.26004968e-01 -1.75990044e-02 -4.28647272e-02  4.49308515e-02
  8.82368906e-02  1.08375514e-03  2.15496988e-02 -8.41673351e-02  5.37554822e-03
 -1.22646881e-02 -2.21061459e-03 -2.86328764e-02 -2.56296321e-02 -2.88512652e-03
 -6.33960962e-01 -2.56559476e-03  1.22095817e-02  7.45344974e-01 -4.96980758e-02
 -3.61095302e-02  1.47419662e-02 -3.41514378e-02 -7.70425178e-01 -3.56631260e-02
  2.59787503e-02 -1.22178525e-02 -2.96870549e-02  3.45764081e-02 -1.19797208e-01
 -1.28135643e-03  5.52747287e-03  8.52972776e-01  4.09507235e-03 -8.72572761e-03
  2.73790763e-02 -4.97393362e-01  2.71784473e-03 -1.87593444e-02  1.06022263e-02
 -1.06727690e-02  6.67110937e-03 -8.53461663e-01 -6.32854049e-03 -1.40406992e-02
 -1.52868242e-02  3.29827242e-03 -8.49065819e-01 -4.89948864e-03  1.11309426e-02
  6.10106050e-03  1.61842542e-02 -1.17708826e-02  2.98264764e-01  1.23852333e-02
  4.63507284e-04 -1.34342025e-01  4.99424165e-03 -8.01367358e-03 -2.75490212e-02
  8.67395276e-01 -2.18969398e-02  1.81529080e-02  1.04472128e-02 -1.27051734e-02
 -1.99657207e-02 -1.75086423e-01  2.85753735e-02  1.66742096e-02  1.25949844e-02
  1.58987111e-02 -1.71794757e-01  2.34558662e-02 -1.08154659e-02  3.71213773e-02
  8.85385096e-02 -7.11864553e-02  8.98051344e-01  3.80134746e-02 -6.26879067e-02
 -8.93252564e-01 -3.78907157e-02  4.60843991e-02  1.63860178e-02 -3.40072803e-01
 -1.01650839e-01  7.24004954e-03  1.15751350e-01 -3.00542569e-02  5.16571953e-02
 -1.44564782e-01  1.10096033e-01 -1.40760878e-03  3.87337650e-02 -4.42412624e-02
 -3.09411362e-02  5.40397019e-02 -1.50766085e-03 -1.84144256e-01 -5.88835381e-01
 -2.28995003e-01  4.10596209e-02  2.29155609e-02  7.05516295e-01 -5.02659739e-02
  4.34739760e-02 -9.92172662e-03 -3.61802425e-02  5.37718501e-03 -4.87266387e-02
 -3.66452162e-01  2.67499855e-02  6.13320740e-01 -4.78241406e-02 -1.12848815e-02
 -1.14158731e-01  6.24034559e-02  7.08865585e-01 -4.85927022e-02  2.66122643e-02
  1.29493053e-01  1.14953052e-01  4.26669594e-01  8.31293493e-01 -1.92375624e+00
 -4.29437352e-02 -1.08637170e-02 -1.56137806e-01  5.16886685e-02 -1.12045533e-03
  1.00583748e+00  1.61279447e-01  2.76977272e-03  1.10997985e-02  6.29561724e-01
 -1.68723783e-02  1.19001501e+00 -3.19824898e-02  6.23644463e-03  1.58414621e-01
  1.43146146e-01  1.16946003e+00  4.93258430e-03 -1.95339086e-02 -9.83481948e-02
  9.43903966e-02 -3.00775322e-01 -6.42675393e-01  4.27670818e-01  4.26821779e-03
  9.48106968e-03  1.90306597e-01  1.31708210e-04  1.24949263e-02  1.56613220e-01
 -3.37315342e-02 -9.12807245e-03 -1.33304501e-02  2.85721133e-01  1.91559581e-02
  6.62128122e-01 -7.77682815e-01 -8.63062846e-03 -3.65276657e-01  2.82164737e-01
  6.83974730e-01 -7.47305076e-01 -2.85968343e-03  4.07089654e-01  2.82308411e-01
 -1.04815804e-02 -2.60802554e-02  4.51598083e-03  6.33030938e-02  4.39145466e-03
  2.40312943e-03 -5.55966388e-02  7.70100616e-02  1.39588027e-02 -6.18033205e-03
 -1.84997896e-02 -4.67000823e-02  6.17871929e-03 -8.61894991e-01 -3.58501919e-02
 -1.08491921e-02 -2.09346964e-01 -2.71748822e-02 -3.07889513e-02  7.31811268e-02
 -6.55172077e-03  1.80569486e-01 -6.36865073e-03  4.78182200e-02  2.08520004e-02
  4.67452156e-02 -8.74111471e-02 -4.79930748e-02  8.49935296e-01 -2.56640347e-02
  4.70293153e-02 -8.02239828e-01  4.88543661e-02  3.78699745e-03  8.58786988e-03
 -6.54546251e-01  1.66055594e-02  3.10694921e-02 -5.94898288e-02  9.57078136e-02
 -1.24891373e-02  7.83184323e-02 -1.05115582e-01  1.05021334e-01 -7.13507472e-02
  2.26755537e-02  8.92163963e-02  1.16101444e-01  7.38384232e-03  1.47435290e-02
 -5.26745861e-02 -4.20696610e-02 -7.84789895e-01 -8.76106155e-03  3.91334433e-02
 -1.39961725e-01  3.72765694e-02 -7.89883309e-03  2.23622379e-02 -4.29391250e-01
 -9.07157666e-04  2.09008015e-02  5.84913033e-01  3.39148674e-02 -5.20143449e-03
 -1.58931606e-01  8.53850389e-02 -5.43313614e-01 -2.08208305e-02  2.01793302e-02
 -1.30817064e-01 -8.41591894e-02 -6.32095521e-03 -1.17224741e-02  3.11065909e-02
 -2.06331661e-02 -2.63554374e-01  9.92680165e-03  2.64422508e-02  9.40681202e-01
 -2.90833327e-02 -1.42492066e-04 -2.33230838e-02 -5.92775411e-01  8.18288137e-03
 -5.06979154e-03 -7.04476363e-01 -2.52639004e-01  7.60360662e-03  3.41329384e-02
  3.92425110e-01  6.48459663e-01  2.68685181e-01 -1.97633054e-02  3.66270187e-02
 -3.98266604e-01 -2.77026095e-02 -5.99032935e-02  1.44388174e-01 -6.29286639e-02
  1.91214782e-01  1.14017342e-02  6.61008726e-02 -1.18930562e+00 -5.74260814e-02
  1.74506408e-02 -3.41424275e-03  8.29508824e-02 -5.08072740e-02 -8.79216769e-02
  3.86904948e-01  3.56471451e-01  3.63200888e-02  6.04691955e-01  4.76777088e-01
 -5.09400467e-01 -3.69152410e-01 -3.43606611e-02  5.85402853e-01 -5.26185573e-01
 -1.12371951e-02 -2.59057075e-02  5.51058572e-02  5.09666439e-02 -2.66011292e-01
  1.49667597e-02 -4.92385330e-02 -4.07744479e-01 -2.70509602e-02  1.30880812e-02
 -2.41981114e-02  5.38361370e-01 -1.59829653e-02 -2.35662994e-02  1.00572936e+00
 -1.18906208e+00 -4.18034203e-03 -2.51157087e-01  3.38651948e-01 -1.02612474e+00
  1.16820884e+00 -9.52862427e-03 -2.65423203e-01 -3.53177567e-01 -2.09311145e-01
 -4.27904284e-01  6.69595865e-01 -2.54255960e-03 -2.49954387e-03  1.20945295e-01
 -2.73984717e-03 -1.80122812e-03 -9.63199385e-01  6.67603478e-01  8.04488967e-03
 -8.29927729e-03  1.74189956e-01 -3.35045620e-03 -5.08057202e-01  8.99119379e-02
  1.08390620e-02  3.75182021e-01  7.17548253e-01 -5.15232569e-01  9.17310364e-02
  2.32022024e-03 -3.66463697e-01  7.22812600e-01 -1.79345137e-01 -2.31088691e-01
  3.35734680e+00 -8.05202077e-03 -2.33946144e-03 -4.07814861e-01  7.46374942e-03
  8.83797829e-03 -1.32901440e+00  1.78466100e-01  4.86273553e-03 -1.64898557e-02
 -5.27308122e-01 -8.26250168e-04 -1.11663748e+00 -8.04337808e-01 -2.56098936e-03
  1.03054550e+00 -6.18534291e-01 -1.09228520e+00 -8.35383434e-01  5.53504901e-03
 -1.05846870e+00 -6.01466100e-01 -3.10015780e-03 -3.28945113e-03  4.80147484e-02
 -2.99159147e-02  4.00142085e-01  3.45579997e-03  2.71243791e-02  1.73344539e+00
 -3.59728515e-02 -1.65692707e-02 -2.34157465e-04 -7.28947926e-01  8.52560200e-03
 -4.65730083e-03 -8.14806737e-01 -1.37923366e+00  1.89223204e-02  9.00732775e-01
 -7.52777013e-01  7.42968448e-01  1.38819221e+00 -8.03217056e-03  8.81325103e-01
  7.29071811e-01
Total SCF Density                          R   N=          300
  2.00393716e+00 -6.00419439e-03  4.34152992e-01 -1.31594973e-02  4.27491579e-01
  5.14091389e-01  2.05957062e-07  5.78400885e-07 -7.76970919e-07  7.94988380e-01
  2.56267990e-07  3.00956332e-07  3.61845836e-08  1.98019090e-06  4.83619947e-01
 -4.39361316e-03  9.34562468e-02  3.27357905e-01 -1.15624414e-06  7.54823576e-07
  6.14730914e-01  2.72780675e-07  1.65554860e-06  1.11344977e-06  6.24231768e-01
 -2.34436677e-07  7.17609857e-07  4.90152195e-01 -1.35498266e-06 -1.97159802e-06
 -2.74582823e-06  3.80245234e-06  2.11390332e-01 -1.87954714e-06  2.20360547e-06
  9.23987377e-02 -9.20490563e-04  1.23815993e-01  2.69434351e-01 -1.05280941e-06
  5.00288234e-07  3.99401910e-01  3.73003465e-07 -1.48444476e-06  2.68982447e-01
  7.78431216e-05 -4.41619480e-03 -1.18438602e-02  3.61699377e-07 -2.00074453e-07
 -1.98896602e-02  2.28247321e-07 -1.00422148e-08 -1.31319943e-02  6.48151470e-04
  8.22525560e-07  6.61584999e-07  8.90961972e-07 -2.31160622e-02  4.15708025e-07
  6.92317350e-07 -1.81509324e-02  9.63033559e-08  5.46610537e-07 -3.37813194e-08
  6.72151124e-04  6.35255213e-07  6.46623719e-07  7.63846139e-07 -6.35211403e-07
 -2.69152507e-02  3.90466863e-07 -3.99189762e-07 -1.17646591e-02  3.43837781e-07
 -4.86666737e-09 -7.86840263e-09  1.49793392e-03 -3.22536042e-04 -1.49633585e-03
  8.89445846e-04 -6.56781059e-08 -2.96603946e-07  5.64558136e-03 -4.20130829e-08
 -1.39793950e-07  3.31383484e-03 -1.74843174e-04  4.58557065e-09  1.70252313e-08
  6.50989524e-05  2.30484530e-07  3.20898608e-07  3.08680395e-08 -1.63227407e-06
  3.72724853e-07 -6.49540118e-07 -1.28167788e-06  1.62912440e-07 -3.58650664e-07
  1.96142249e-08  4.74623567e-08 -2.07422315e-08 -8.35434785e-09  4.77100568e-12
 -3.46485403e-03  1.14982486e-01  1.87325995e-03 -2.10986266e-06  3.26589222e-01
 -2.56604327e-01 -3.19382577e-06  1.42752462e-01 -1.43587932e-01  7.79187268e-03
  3.16649200e-07 -1.81758687e-02 -3.21973089e-03  6.76343993e-07  3.84134531e-01
  8.15334054e-04 -2.51566671e-03 -1.88445136e-02 -2.26508410e-06  8.43114130e-02
 -4.18919996e-02 -2.19247951e-06  3.68526619e-02 -2.66383126e-02  1.34258916e-03
  1.09026657e-07 -4.69226785e-03 -4.06473678e-04  1.13163957e-07  7.58344590e-02
  1.75886871e-02  2.00151425e-07 -2.26586559e-07 -2.76591684e-07  3.99479500e-02
  2.52764434e-07 -7.58904115e-08  3.13674766e-02  2.58063313e-07 -1.02211579e-07
  1.95818830e-08 -1.16157584e-03 -4.04490221e-08 -2.07455490e-09 -8.20214225e-08
 -8.81634323e-08 -8.81573050e-08  2.00737362e-03  1.82913848e-03 -2.45775999e-02
 -5.92096785e-03  1.37246965e-06 -2.32041510e-02  4.09086451e-02  1.20183410e-06
 -1.01425557e-02  2.19543019e-02 -1.22155126e-03 -6.04628785e-08  1.29138292e-03
  5.48120106e-04 -9.16872127e-08 -4.40422090e-02 -7.11515883e-03  7.91398609e-08
  6.09569417e-03 -1.43149640e-03  2.06061590e-02  2.09218025e-02 -8.93221930e-07
  3.21491990e-02  6.02353226e-03 -7.59716849e-07  1.40523148e-02  6.87048249e-03
 -2.60144346e-04  9.05251086e-08 -1.78919074e-03 -5.49274295e-05  3.79600005e-08
  2.64183859e-02  5.37455778e-03 -4.68363994e-08 -2.58666323e-03  3.12006794e-03
 -3.46673821e-03  1.14979795e-01  1.87044650e-03  2.00156147e-06 -3.26589010e-01
 -2.56607154e-01  2.45112305e-06 -1.42751816e-01 -1.43590086e-01  7.79220809e-03
 -4.42126851e-07  1.81759319e-02 -3.21933538e-03  1.72926720e-07 -5.69576165e-02
 -3.80366286e-02 -8.85581998e-08 -1.27026026e-02 -1.70025086e-02  3.84134285e-01
  8.15284002e-04 -2.51514683e-03 -1.88435180e-02  1.87412967e-06 -8.43114377e-02
 -4.18911349e-02  1.68154279e-06 -3.68524048e-02 -2.66376860e-02  1.34262093e-03
 -1.76348276e-07  4.69222162e-03 -4.06362454e-04 -1.68039609e-08 -3.80370910e-02
 -1.18080863e-02  6.63997540e-08  9.75430407e-04 -5.83481027e-03  7.58342383e-02
  1.75885503e-02  1.04529249e-06  6.11552304e-07  5.43394542e-07  3.99454335e-02
  9.52287320e-07  9.76536760e-08  3.13655007e-02  5.63810865e-07  1.33678481e-07
  1.12389681e-08 -1.16150267e-03 -7.93768539e-08 -5.16595953e-09 -8.20149899e-08
  6.08038021e-07  2.96648665e-08  2.00724717e-03 -1.67027972e-09  3.89439627e-08
 -3.37160541e-07 -5.96934643e-08  2.00712073e-03 -1.82848819e-03  2.45781208e-02
  5.92162197e-03 -2.92970106e-07 -2.32037602e-02 -4.09083002e-02 -1.82499197e-07
 -1.01423474e-02 -2.19540047e-02  1.22155531e-03 -1.63408961e-08  1.29139013e-03
 -5.48090644e-04  5.59182525e-08  1.27028850e-02 -9.75343030e-04 -3.96023278e-08
 -3.86904356e-03 -4.98330201e-04  4.40419121e-02  7.11502623e-03 -2.59206971e-08
  6.09567126e-03 -1.43207595e-03  2.06045437e-02  2.09198183e-02 -2.75032335e-07
 -3.21496047e-02  6.02200629e-03 -3.64228486e-08 -1.40526994e-02  6.86928483e-03
 -2.60067092e-04  9.62128846e-09  1.78927709e-03 -5.48933813e-05 -1.15966765e-08
 -1.70025877e-02 -5.83482711e-03 -3.61481870e-08  4.98406407e-04 -1.15434724e-03
  2.64186327e-02  5.37474694e-03 -4.33776719e-08  2.58667895e-03  3.11996720e-03
Natural orbital occupancies                R   N=           20
  1.00000000e+00  1.00000000e+00  1.00000000e+00  1.00000000e+00  1.00000000e+00
  0.00000000e+00  0.00000000e+00  0.00000000e+00  0.00000000e+00  0.00000000e+00
  0.00000000e+00  0.00000000e+00  0.00000000e+00  0.00000000e+00  0.00000000e+00
  0.00000000e+00  0.00000000e+00  0.00000000e+00  0.00000000e+00  0.00000000e+00
