pynof
Energy PNOF8 CC-PVDZ
Number of atoms                            I                4
Charge                                     I                0
Multiplicity                               I                1
Number of electrons                        I               32
Number of alpha electrons                  I               16
Number of beta electrons                   I               16
Number of basis functions                  I               56
Number of independant functions            I               48
Number of contracted shells                I               24
Highest angular momentum                   I                2
Largest degree of contraction              I                8
Number of primitive shells                 I               88
Atomic numbers                             I   N=           4
           9           9           9           5
Nuclear Charges                            R   N=           4
  9.00000000e+00  9.00000000e+00  9.00000000e+00  5.00000000e+00
Current cartesian coordinates              R   N=          12
  2.15645889e+00  1.24499304e+00  0.00000000e+00 -2.15637801e+00  1.24503272e+00
  0.00000000e+00 -5.12094315e-05 -2.49001475e+00  0.00000000e+00 -5.12094315e-05
 -1.90055622e-05  0.00000000e+00
Shell types                                I   N=          24
           0           0           0           1           1          -2
           0           0           0           1           1          -2
           0           0           0           1           1          -2
           0           0           0           1           1          -2
Number of primitives per shell             I   N=          24
           8           8           1           3           1           1
           8           8           1           3           1           1
           8           8           1           3           1           1
           8           8           1           3           1           1
Shell to atom map                          I   N=          24
           1           1           1           1           1           1
           2           2           2           2           2           2
           3           3           3           3           3           3
           4           4           4           4           4           4
Coordinates of each shell                  R   N=          72
  2.15645889e+00  1.24499304e+00  0.00000000e+00  2.15645889e+00  1.24499304e+00
  0.00000000e+00  2.15645889e+00  1.24499304e+00  0.00000000e+00  2.15645889e+00
  1.24499304e+00  0.00000000e+00  2.15645889e+00  1.24499304e+00  0.00000000e+00
  2.15645889e+00  1.24499304e+00  0.00000000e+00 -2.15637801e+00  1.24503272e+00
  0.00000000e+00 -2.15637801e+00  1.24503272e+00  0.00000000e+00 -2.15637801e+00
  1.24503272e+00  0.00000000e+00 -2.15637801e+00  1.24503272e+00  0.00000000e+00
 -2.15637801e+00  1.24503272e+00  0.00000000e+00 -2.15637801e+00  1.24503272e+00
  0.00000000e+00 -5.12094315e-05 -2.49001475e+00  0.00000000e+00 -5.12094315e-05
 -2.49001475e+00  0.00000000e+00 -5.12094315e-05 -2.49001475e+00  0.00000000e+00
 -5.12094315e-05 -2.49001475e+00  0.00000000e+00 -5.12094315e-05 -2.49001475e+00
  0.00000000e+00 -5.12094315e-05 -2.49001475e+00  0.00000000e+00 -5.12094315e-05
 -1.90055622e-05  0.00000000e+00 -5.12094315e-05 -1.90055622e-05  0.00000000e+00
 -5.12094315e-05 -1.90055622e-05  0.00000000e+00 -5.12094315e-05 -1.90055622e-05
  0.00000000e+00 -5.12094315e-05 -1.90055622e-05  0.00000000e+00 -5.12094315e-05
 -1.90055622e-05  0.00000000e+00
Total Energy                               R     -3.232007975685100e+02
Primitive exponents                        R   N=          88
  1.47100000e+04  2.20700000e+03  5.02800000e+02  1.42600000e+02  4.64700000e+01
  1.67000000e+01  6.35600000e+00  1.31600000e+00  1.47100000e+04  2.20700000e+03
  5.02800000e+02  1.42600000e+02  4.64700000e+01  1.67000000e+01  6.35600000e+00
  1.31600000e+00  3.89700000e-01  2.26700000e+01  4.97700000e+00  1.34700000e+00
  3.47100000e-01  1.64000000e+00  1.47100000e+04  2.20700000e+03  5.02800000e+02
  1.42600000e+02  4.64700000e+01  1.67000000e+01  6.35600000e+00  1.31600000e+00
  1.47100000e+04  2.20700000e+03  5.02800000e+02  1.42600000e+02  4.64700000e+01
  1.67000000e+01  6.35600000e+00  1.31600000e+00  3.89700000e-01  2.26700000e+01
  4.97700000e+00  1.34700000e+00  3.47100000e-01  1.64000000e+00  1.47100000e+04
  2.20700000e+03  5.02800000e+02  1.42600000e+02  4.64700000e+01  1.67000000e+01
  6.35600000e+00  1.31600000e+00  1.47100000e+04  2.20700000e+03  5.02800000e+02
  1.42600000e+02  4.64700000e+01  1.67000000e+01  6.35600000e+00  1.31600000e+00
  3.89700000e-01  2.26700000e+01  4.97700000e+00  1.34700000e+00  3.47100000e-01
  1.64000000e+00  4.57000000e+03  6.85900000e+02  1.56500000e+02  4.44700000e+01
  1.44800000e+01  5.13100000e+00  1.89800000e+00  3.32900000e-01  4.57000000e+03
  6.85900000e+02  1.56500000e+02  4.44700000e+01  1.44800000e+01  5.13100000e+00
  1.89800000e+00  3.32900000e-01  1.04300000e-01  6.00100000e+00  1.24100000e+00
  3.36400000e-01  9.53800000e-02  3.43000000e-01
Contraction coefficients                   R   N=          88
  7.21000000e-04  5.55300000e-03  2.82670000e-02  1.06444000e-01  2.86814000e-01
  4.48641000e-01  2.64761000e-01  1.53330000e-02 -1.65000000e-04 -1.30800000e-03
 -6.49500000e-03 -2.66910000e-02 -7.36900000e-02 -1.70776000e-01 -1.12327000e-01
  5.62814000e-01  1.00000000e+00  4.48780000e-02  2.35718000e-01  5.08521000e-01
  1.00000000e+00  1.00000000e+00  7.21000000e-04  5.55300000e-03  2.82670000e-02
  1.06444000e-01  2.86814000e-01  4.48641000e-01  2.64761000e-01  1.53330000e-02
 -1.65000000e-04 -1.30800000e-03 -6.49500000e-03 -2.66910000e-02 -7.36900000e-02
 -1.70776000e-01 -1.12327000e-01  5.62814000e-01  1.00000000e+00  4.48780000e-02
  2.35718000e-01  5.08521000e-01  1.00000000e+00  1.00000000e+00  7.21000000e-04
  5.55300000e-03  2.82670000e-02  1.06444000e-01  2.86814000e-01  4.48641000e-01
  2.64761000e-01  1.53330000e-02 -1.65000000e-04 -1.30800000e-03 -6.49500000e-03
 -2.66910000e-02 -7.36900000e-02 -1.70776000e-01 -1.12327000e-01  5.62814000e-01
  1.00000000e+00  4.48780000e-02  2.35718000e-01  5.08521000e-01  1.00000000e+00
  1.00000000e+00  6.96000000e-04  5.35300000e-03  2.71340000e-02  1.01380000e-01
  2.72055000e-01  4.48403000e-01  2.90123000e-01  1.43220000e-02 -1.39000000e-04
 -1.09700000e-03 -5.44400000e-03 -2.19160000e-02 -5.97510000e-02 -1.38732000e-01
 -1.31482000e-01  5.39526000e-01  1.00000000e+00  3.54810000e-02  1.98072000e-01
  5.05230000e-01  1.00000000e+00  1.00000000e+00
Alpha Orbital Energies                     R   N=          56
 -2.62951285e+01 -2.62937305e+01 -2.62893802e+01 -7.80441088e+00 -1.49874221e+00
 -1.33966465e+00 -1.33777414e+00 -1.10870294e+00 -1.10736915e+00 -1.08458357e+00
 -7.56297646e-01 -7.49415858e-01 -7.48267322e-01 -6.83004195e-01 -6.82766402e-01
 -6.78766137e-01  0.00000000e+00  0.00000000e+00  0.00000000e+00  0.00000000e+00
  0.00000000e+00  0.00000000e+00  0.00000000e+00  0.00000000e+00  0.00000000e+00
  0.00000000e+00  0.00000000e+00  0.00000000e+00  0.00000000e+00  0.00000000e+00
  0.00000000e+00  0.00000000e+00  0.00000000e+00  0.00000000e+00  0.00000000e+00
  0.00000000e+00  0.00000000e+00  0.00000000e+00  0.00000000e+00  0.00000000e+00
  0.00000000e+00  0.00000000e+00  0.00000000e+00  0.00000000e+00  0.00000000e+00
  0.00000000e+00  0.00000000e+00  0.00000000e+00  0.00000000e+00  0.00000000e+00
  0.00000000e+00  0.00000000e+00  0.00000000e+00  0.00000000e+00  0.00000000e+00
  0.00000000e+00
Alpha MO coefficients                      R   N=        3136
  1.29182609e-01 -2.89727472e-03 -3.69396553e-03 -1.00016306e-03  3.25433769e-03
 -3.32430869e-04 -8.75324010e-04  2.57613951e-03 -2.24182177e-04  4.69686898e-05
  8.42919964e-06  4.79029527e-06  1.22267218e-04 -1.73433381e-04 -6.08223555e-01
  1.29423449e-02  1.60022998e-02 -6.50103587e-04  3.23849189e-03 -2.73997963e-04
 -1.61655227e-04  2.15207385e-03 -1.83836765e-04 -8.34086968e-05 -7.42218640e-06
  4.20008644e-06  1.64208408e-04 -8.13964364e-05  7.83217564e-01 -1.57801171e-02
 -2.06107770e-02  2.36207894e-04  3.54518291e-03  5.53681940e-05 -1.24534165e-04
  1.65024333e-03  4.43457854e-05  1.06541332e-04 -6.35915092e-08 -6.41284747e-07
  1.94532624e-04 -6.67863485e-05  1.57654464e-03 -2.83968770e-04  2.14376684e-04
 -1.97784205e-03  2.03395856e-03 -1.13717076e-04  2.05055577e-04  8.48988420e-05
 -3.40604688e-05  1.96848792e-05 -4.06186796e-06 -2.79372336e-05  7.97538113e-04
 -1.06201829e-03 -9.34987049e-01  1.84557007e-02  2.33938745e-02  4.61606380e-04
 -1.65340277e-03 -5.97768821e-04 -8.82956464e-05 -1.15359989e-03 -3.98035537e-04
 -2.12518756e-04  1.66972395e-05  9.20202272e-06  1.77511329e-04  3.49412490e-04
  1.88352803e-01 -6.37512604e-03 -7.37421639e-03  2.32790427e-03 -2.64570518e-03
 -1.01088417e-03  1.75255568e-03 -1.30596152e-03 -6.84591941e-04 -1.62731066e-05
 -2.50887034e-05  1.41688270e-05  1.05604210e-04  1.99241901e-05  3.00616409e-01
 -7.09066349e-03 -8.25611785e-03  2.81240648e-03  1.35308012e-03  1.77764631e-04
  2.31243943e-03  9.76376713e-04  1.38814697e-04  2.40916682e-05  4.44874453e-08
 -7.03670094e-07  4.76814119e-05  1.73694754e-04  1.45655632e-03  2.21054573e-03
 -4.62951007e-04  3.16316836e-03  2.42128160e-03 -2.94709233e-04 -1.20458986e-04
 -4.81059052e-04 -8.83665930e-05 -9.39722722e-05  2.76986007e-05 -7.64798198e-05
  1.48938418e-03  1.34264638e-03 -3.30814655e-01  6.66500219e-03  1.09323558e-02
  3.26817083e-03  3.78467319e-03 -6.72664363e-04  1.12016314e-03  1.98361133e-03
 -4.63737142e-04 -1.54066123e-05  1.42989724e-05  8.60783182e-06  8.22003993e-05
 -7.37954306e-06 -7.70968972e-01  1.71797238e-02  2.29018651e-02 -1.47338749e-03
  2.81272622e-03  9.21786360e-04 -3.23264880e-04  1.35697302e-03  6.40897287e-04
 -1.57823158e-04  1.83540598e-05 -1.06774910e-05  1.52262035e-04 -2.44597192e-04
 -5.44431147e-01  1.10236300e-02  1.60603441e-02 -1.37709338e-03 -3.51175982e-03
 -4.59336143e-04 -1.15895606e-03 -1.27740988e-03 -3.15790789e-04 -7.75472887e-05
 -4.30145644e-07 -1.16413515e-05 -1.52532084e-04 -9.75393065e-05 -3.83457428e-03
 -7.74791754e-04 -1.00620688e-03 -2.77123534e-03  4.46138354e-04 -4.33368732e-05
  2.00043709e-04  1.67468291e-04 -1.29395019e-05 -2.92411953e-05 -1.07266133e-04
  4.53901944e-05 -1.94853009e-04 -9.51338006e-04  1.04187003e-03 -3.97070729e-04
 -3.61052527e-03 -1.21016808e-03 -6.24481309e-04  3.83929604e-04  1.19566713e-03
  7.94717510e-04  2.56082909e-04 -1.94176067e-04 -1.05228876e-05 -6.09636394e-06
  2.60282224e-04  4.12196649e-04 -1.06247945e-03 -1.34644026e-04 -2.95162462e-03
 -9.51951914e-04 -8.45762926e-04  1.67415838e-04 -2.41984140e-03  5.82412091e-04
  1.06208233e-04 -1.67625766e-04  6.08394834e-06 -3.47618883e-06  2.16915308e-04
 -3.77683212e-04 -2.76338539e-03 -3.06504097e-03 -5.48430769e-03 -1.20182150e-03
 -1.87422076e-03  3.46754342e-04 -7.46435314e-04 -2.97131248e-03  2.30126533e-04
 -1.18544510e-04 -1.57897196e-08  1.12458841e-05 -3.51267676e-04 -1.84555061e-05
  1.00280440e+00  3.12508699e-03 -2.84737760e-03  4.87363353e-04  1.57189106e-03
  1.84985696e-04 -1.89654551e-04 -1.54942822e-04  5.54978863e-05 -1.57362076e-03
  1.45550319e-05 -5.45964036e-06  6.22088457e-04  3.46422482e-04  1.41943634e-02
  1.94132465e-01  1.79196826e-01 -2.24092525e-01 -9.00525469e-02 -1.90542382e-02
 -1.25829291e-01 -4.90544840e-02 -1.28984897e-02 -6.49213959e-03  4.72526485e-04
  2.73339834e-04  6.50165180e-03  1.02487058e-02  1.15498588e-02  1.80707566e-01
  1.86116554e-01  1.36508756e-01 -6.67489300e-02 -3.38652561e-03  8.02299231e-02
 -3.69027552e-02 -2.04459239e-03 -4.91145127e-03 -1.52520630e-04  8.32217612e-05
  5.03301937e-03 -7.70259234e-03  1.17345356e-02  1.88064556e-01  1.83659489e-01
 -5.53139761e-02  2.00318798e-01 -4.96465292e-03 -3.47290663e-02  1.13769404e-01
 -3.13797290e-03 -5.72309639e-03 -4.70638807e-06 -2.11259165e-04 -1.07852404e-02
 -7.13337599e-04 -2.28325181e-02  2.75255313e-01  2.41586961e-03  3.15839753e-02
  2.38328473e-03 -5.64546635e-03 -7.93462237e-03  2.27217464e-03 -1.69365826e-03
 -2.27453749e-02 -1.05439308e-03 -4.86046570e-04 -3.92100543e-03  1.69967412e-02
 -2.28256918e-02 -2.66903150e-01 -1.82715632e-01  2.82372629e-01  1.34406030e-01
  6.47883989e-03  1.35177679e-01  5.53283513e-02  4.47673760e-03  7.57010936e-03
 -1.36639845e-04 -7.80091959e-05 -8.02717723e-03 -1.06420150e-02  1.12888657e-02
  1.01071906e-01  7.35594673e-02  1.46070436e-01  2.56666594e-03 -1.62947882e-03
  7.10582635e-02  5.05650134e-04 -1.13984986e-03 -3.04170864e-03 -2.90122860e-05
  2.02971086e-05  6.26489705e-06 -6.28446914e-03  1.47540702e-02  1.84659271e-01
  1.22758641e-01  6.20848350e-02  2.49374545e-01 -3.83023606e-03  2.87568977e-02
  1.20302486e-01 -2.66455005e-03 -6.01962140e-03  2.46193292e-06 -8.74901574e-05
 -1.05579646e-02 -2.36244900e-03  3.50420638e-03  2.47380687e-02 -4.90644622e-04
 -2.34710838e-01 -2.16165744e-01  2.09918981e-04  2.45941671e-02  1.96030888e-02
  6.30823545e-05 -1.65721009e-03  5.45808910e-04  4.85970331e-04 -7.17919996e-02
 -8.62974582e-02  2.51964839e-03  4.48961454e-02  2.81702940e-02 -6.53773263e-02
  2.55301519e-02 -1.33032366e-02 -2.52963400e-02  8.15965484e-03 -9.01118299e-03
 -1.12308493e-03  3.27833256e-04  1.90278688e-04 -2.25389660e-03  3.42522390e-03
 -2.24249935e-02 -2.67915588e-01 -1.83508470e-01 -2.49461212e-01  2.48276480e-01
 -1.08952907e-03 -1.13234483e-01  1.29822915e-01 -5.51039041e-04  8.25777403e-03
 -7.86820313e-05  4.18869911e-05 -6.84124272e-03  1.28134673e-02  1.42851994e-02
  2.09170306e-01  1.47817216e-01 -5.96592815e-02  2.26836504e-01 -4.17654877e-03
 -3.12780759e-02  1.04122494e-01 -2.68935059e-03 -5.54805277e-03 -3.80053667e-06
 -1.62469069e-04 -9.73428468e-03  1.99954507e-03  4.80846284e-03 -2.65398724e-02
  6.36763826e-04  2.11960662e-01 -2.31620100e-01 -3.82501892e-03 -1.88480978e-02
  2.50560823e-02 -1.14748807e-03  1.68516792e-03 -8.22163285e-04 -2.34738804e-04
 -8.70898097e-02  7.04932149e-02  6.22910080e-03  3.42979043e-02  4.65173349e-02
  4.56136668e-02 -1.99368408e-02  2.33052340e-02  2.12956163e-02 -5.61533890e-03
  1.57840231e-02  2.99143308e-04 -5.72980771e-04 -3.37597101e-04  1.19775129e-03
 -1.20269843e-03 -2.45057388e-02 -2.66270917e-01 -3.57205539e-01  2.50384284e-01
 -2.66663285e-01 -4.89812490e-03  1.38684854e-01 -1.58861683e-01 -3.75234863e-03
 -4.52434870e-03 -2.83159123e-06  4.92366643e-06  2.82668778e-03 -7.85699035e-03
  1.94088991e-02  2.41421349e-01  3.15409364e-01  6.81804074e-02 -2.69588601e-01
  1.43485378e-02  4.20668576e-02 -1.53761068e-01  9.57957741e-03  3.06289628e-03
  8.61792187e-06  4.52263964e-04  5.61759786e-03 -9.94180168e-05  8.99426325e-04
  1.94294019e-02 -4.96096279e-04 -1.13125349e-01  1.34343914e-01  6.74769017e-03
  2.56456014e-02 -3.78609422e-02  2.02412180e-03 -1.23058813e-03  1.89826414e-03
 -4.00064843e-04  4.33593550e-02 -2.91179319e-02 -2.40575199e-02 -2.93295745e-01
 -3.87514190e-01 -2.89438663e-01 -1.76565237e-01  1.18176389e-02 -1.63715807e-01
 -1.01101177e-01  8.01637583e-03 -3.99782455e-03 -2.88012901e-04 -1.67545508e-04
  3.87574953e-03  6.12289463e-03  8.72836428e-03  1.18976696e-01  1.56431968e-01
 -1.48101424e-01  5.67043788e-02  1.00718978e-04 -8.20439975e-02  3.91265880e-02
 -1.00051958e-04  2.01139647e-03  4.89296084e-05 -2.53752860e-05 -1.99350771e-04
  4.20077657e-03  1.46393780e-02  1.76719199e-01  2.40891527e-01 -9.76246378e-02
 -2.48290162e-01  3.54202397e-03 -5.87131238e-02 -1.41111180e-01  2.28370723e-03
  3.36880825e-03  3.56879186e-06  1.36861528e-04  6.05816190e-03 -1.91861267e-04
 -1.78703131e-04 -2.34748604e-02  8.98417879e-04  1.36665879e-01  1.18675003e-01
  3.18479050e-03 -3.67698761e-02 -2.60040780e-02  9.55541510e-04  1.31366176e-03
  7.88653983e-04  1.87806990e-04  2.97808357e-02  4.16130078e-02  1.30447510e-02
  2.16929149e-01  2.72214848e-01  2.49374778e-01  1.43640508e-01  8.58637562e-04
  1.52218126e-01  8.83550574e-02  5.42740928e-04  4.26773638e-03 -3.21906545e-05
 -1.69351320e-05 -3.64704101e-03 -6.77605526e-03  2.38379009e-02  2.10533713e-01
  2.48199837e-01 -1.90311477e-01  1.15383770e-01  4.46645298e-03 -1.21431055e-01
  7.31601485e-02  3.04191606e-03  3.10522444e-03  1.06076692e-04 -6.07170466e-05
 -2.87641438e-03  4.85700085e-03  2.22799724e-02  2.07325572e-01  2.54377174e-01
  2.54434613e-03 -2.56795215e-01 -6.03507975e-04  4.52421014e-04 -1.59294339e-01
 -4.69724270e-04  3.77224032e-03 -1.09625831e-06  1.85245594e-06  6.80579635e-03
 -3.49045684e-04 -8.26826789e-03 -2.05492227e-01  2.12301393e-02 -2.68007019e-02
  2.51448799e-03  9.72622607e-04  3.80607093e-03  1.82729611e-04  2.91723578e-04
  3.80182057e-03 -2.42992577e-04  2.54227765e-04  3.99077506e-04 -7.89379543e-03
 -8.58932570e-04  9.51082511e-03  1.10671877e-02  1.37311424e-02 -1.99971822e-02
  2.86070336e-01  1.04285351e-02 -1.58686018e-02  1.86944863e-01 -4.76585997e-05
 -8.90689061e-03 -5.11836393e-03 -4.23128168e-04  3.53006266e-04  5.32700370e-04
 -2.45266403e-04 -1.47565682e-03  3.62592357e-02  5.45139996e-02  4.01707390e-01
  2.46113241e-02  3.80648584e-02  2.67038125e-01 -1.37548893e-04  1.12689027e-02
 -6.52365548e-03  1.34484708e-03  5.48194411e-04  5.17143177e-04 -3.73981680e-03
 -5.18314478e-03 -6.58807633e-02  1.26584424e-02  3.34154807e-01 -4.58300211e-02
  7.54428794e-03  2.20247552e-01 -1.75976299e-04 -3.52077081e-05  1.14158821e-02
 -3.80147097e-04 -1.52423117e-03 -1.16240642e-03  5.97588852e-03 -9.21567678e-05
 -3.82224292e-03  3.65757903e-04  2.10525440e-01 -6.44183285e-04  2.64950744e-03
  6.31488975e-02 -4.08902805e-04 -7.78516454e-03  7.56681990e-04 -3.91255044e-03
  1.65116677e-03 -4.43712757e-03 -1.92353084e-02 -7.95108779e-03 -2.57897538e-01
  5.42346852e-01 -1.23656308e-02 -1.76081762e-01  3.53850692e-01 -8.36184307e-03
  1.11443958e-03  3.07963406e-04  1.80637245e-04  1.18594632e-02 -9.07939254e-03
  8.36462767e-03 -2.65806329e-02 -6.23112111e-02  1.06376860e-01  8.73997949e-02
  9.04417692e-04  5.52556933e-02  5.65652123e-02  8.30284318e-04 -1.55955410e-03
 -3.70357253e-05  1.95287498e-05  3.51966428e-03  1.46303113e-04 -3.29408521e-03
  3.54472394e-03  2.71343014e-02 -1.67746247e-01 -2.77105403e-02 -7.13042679e-03
 -1.03978710e-01 -1.00171196e-02 -4.73528789e-03  1.36485480e-03 -4.07808470e-06
 -2.32709930e-04  1.43294809e-03 -4.87699517e-03  1.25531019e-03 -1.44528638e-02
 -3.99859059e-04 -9.31408532e-02  9.11353672e-02 -3.82982846e-03 -1.54158880e-02
  3.01860007e-02 -1.14866135e-03  1.35214971e-03 -8.93242495e-04  1.08846124e-04
 -4.99986874e-02  2.20100660e-02  4.49184312e-03 -1.30433111e-02 -4.98424360e-02
 -9.22783670e-02  4.09061652e-02  1.60511492e-02 -5.15026655e-02  3.80227382e-02
  1.07461524e-02 -2.04832581e-03 -4.27157694e-04 -2.53770104e-04  3.07170901e-03
  1.01607910e-03  4.10317198e-04  2.04440292e-02  3.24594413e-02  1.80751575e-01
  3.04019712e-01 -1.19139131e-03  1.17258329e-01  1.92401052e-01 -1.19813808e-03
  2.44440823e-04  7.51661362e-05 -4.44325900e-05  8.18860582e-03  4.49661102e-03
 -3.61158869e-03  1.76016019e-02  4.22057992e-02  5.19245549e-01 -4.18544784e-02
  1.90776662e-02  3.41604698e-01 -1.85151911e-02  1.28425073e-02  1.12985332e-03
  5.27743704e-06  5.68671910e-04  1.34897222e-03  1.27631577e-02  7.77156891e-04
  1.07484625e-02  1.54028810e-04  1.03820914e-01  8.36350087e-02  6.99104780e-03
  3.02351481e-02  1.45739858e-02  2.09730410e-03 -9.27928019e-04  1.16053685e-03
 -9.05358794e-04 -2.17919135e-02 -4.95378198e-02 -1.32662060e-05  1.14816138e-02
  1.14107415e-02  3.40935713e-03 -1.06911425e-02  5.50984424e-01  3.79053981e-03
 -8.18331152e-03  3.80836474e-01 -1.47774207e-04 -1.15859349e-02 -6.61982483e-03
 -1.02254118e-04  3.52299483e-04 -4.11801165e-04  3.44166703e-05  4.78485618e-04
  1.96879545e-02  3.62657247e-02 -1.39688326e-01  1.38566847e-02  2.48417807e-02
 -9.75875624e-02 -1.56250117e-05 -2.51666363e-03  1.76458570e-03  8.34869901e-04
  4.72243832e-04 -3.33064038e-04 -3.54558205e-03 -4.18346541e-03 -3.34218943e-02
  7.77765532e-03 -3.35871088e-01 -2.32232975e-02  4.79187039e-03 -2.33481078e-01
 -9.44815587e-05  2.10039918e-04 -7.72174279e-03 -2.20308462e-04 -7.08157982e-04
 -5.40610156e-04  4.15379807e-03  2.41782731e-05  2.39134668e-03  1.53423701e-03
  1.55259572e-02 -4.22870999e-04  1.90947960e-03  4.66501849e-03 -3.36042318e-04
  4.64901854e-02  4.20884150e-02 -2.45040544e-03  1.77607898e-03  5.28885701e-04
  5.37150865e-03  6.99490071e-03  1.02121623e-02 -7.52096140e-03  1.34322222e-01
  7.23547075e-03 -6.72334995e-03  9.21319429e-02  6.52695666e-05 -2.86926690e-03
 -1.97700304e-03 -2.94895566e-04  4.93006957e-05 -5.55106639e-04  3.90701186e-03
  4.27173562e-03  1.34191138e-02  3.13218603e-02 -4.81960861e-01  9.53456132e-03
  2.16531670e-02 -3.34757678e-01  1.30860685e-05 -9.71497429e-03  5.50556954e-03
  5.91453742e-04  4.15766291e-04 -1.73379231e-03 -4.86342085e-03 -6.21291602e-03
 -4.16743940e-02  7.02100452e-03  4.30770201e-01 -2.87453080e-02  4.09081952e-03
  2.97474809e-01 -6.95821961e-05  1.87241946e-04  1.05154805e-02 -1.56012357e-04
 -9.65507116e-04 -4.41161700e-04 -2.68493563e-04  1.04707700e-04 -2.68461329e-03
 -1.58385452e-03  1.71197626e-02 -8.96317062e-04  1.83006665e-03  5.13902270e-03
 -3.88618747e-05  4.14836034e-02 -4.69946277e-02 -2.48305009e-03  1.53095133e-03
  1.15130067e-03  1.41297100e-02  1.58810645e-02  1.51773951e-01 -2.08741859e-01
 -9.03275729e-02  1.07350284e-01 -1.52589999e-01 -6.09325931e-02  2.02293477e-04
  2.29113516e-03  1.33776267e-03 -4.31412624e-03  1.76012293e-03  7.28670009e-04
 -3.01662172e-02 -5.75934258e-02  3.34268815e-01  3.99893703e-01 -8.09317855e-03
  2.18642358e-01  2.84251773e-01 -3.96846138e-03 -1.52702465e-03 -6.12274769e-04
  3.39514616e-04  1.18255968e-02  3.86967131e-03 -3.77829723e-04 -7.90395861e-03
  1.62024755e-02 -3.29515812e-01 -6.79331096e-02 -5.07447982e-02 -2.37451315e-01
 -3.30828346e-02 -3.35128726e-02  1.63589174e-03 -2.50716606e-05 -1.71311066e-03
  2.52076442e-03 -8.01553680e-03  1.09779859e-03 -4.63130608e-03 -3.54558278e-04
 -3.65791909e-02  7.88444323e-02 -3.07275857e-02  9.58560283e-03  5.28521528e-03
 -9.21794720e-03  5.61798963e-04 -5.53513991e-03  1.19458652e-04 -4.47500870e-03
 -1.57745292e-02  7.53286944e-03  1.97024280e-02  1.72380255e-02 -1.62314573e-02
 -1.32053736e-02  1.82448019e-03  8.92310271e-03  3.98132111e-03 -1.70244033e-03
 -7.25423915e-01 -1.09671045e-04 -1.04301629e-03 -1.77631602e-01 -2.55542153e-01
 -2.98366426e-03 -6.51382292e-03  1.47509623e-03 -9.72761616e-03 -6.17853407e-03
  7.25562711e-04 -2.45719804e-03 -1.52993427e-02 -6.09721443e-04  2.61297191e-01
 -5.23020011e-05 -4.10808683e-04 -7.49235642e-02 -1.72767318e-01 -3.24613506e-03
 -8.32025707e-03 -1.54167509e-02 -4.92465190e-03 -8.92294486e-03  5.43383181e-04
 -1.59499009e-02  4.72294152e-03 -1.25337693e-03  4.66265799e-01  6.37210754e-04
  2.48653838e-04 -1.97653637e-01 -1.23353524e-01 -1.83622217e-04 -2.73962314e-03
 -3.90465265e-03  4.64020094e-03  2.20910636e-03  1.52215318e-03 -8.41596516e-03
 -1.51823994e-02 -9.82445598e-04  1.43288739e-03 -1.83917876e-04 -1.16402523e-03
 -4.39624685e-02 -4.82047896e-02  5.98442460e-02  1.37540296e-01 -1.88790968e-01
  1.16692146e-02 -4.02114497e-02 -9.05849231e-04  8.44137014e-02  3.83538389e-02
 -7.53466471e-03 -1.88675377e-02  5.16632744e-04  2.92291438e-03 -3.26499985e-02
  7.21701921e-02 -4.21551792e-01 -9.79696734e-01  1.35005242e+00 -1.57087287e-01
  6.14513673e-02 -6.66777412e-03  5.87499115e-01 -3.37887744e-01 -2.35300136e-03
  1.25976955e-01  1.10069042e-03 -1.62344075e-03 -1.79855176e-01  2.60526426e-01
  3.63223421e-01  8.41529241e-01 -1.17720167e+00  2.72606843e-02  1.55655353e-01
 -9.33066420e-03 -4.86489515e-03 -6.04600998e-01  1.40831674e-03 -1.06856584e-01
 -1.48854494e-03 -1.63228132e-03 -2.67656582e-01  3.99180104e-02  5.86828407e-03
  1.53576978e-02  6.44312949e-03  5.13613305e-01 -6.49299507e-01 -2.49965307e-03
 -7.90859644e-02  8.00866191e-02  2.60653888e-02  3.07692035e-03 -1.25793789e-03
  7.51229862e-05 -1.56995910e-01  1.03097409e-01 -2.64030248e-04 -4.00837634e-03
 -1.37003399e-02 -2.33568416e-04  4.67293633e-03  3.41611167e-01  7.66890519e-05
  7.58976271e-06  4.67592557e-02 -4.87770518e-04  3.14897788e-01  1.71745464e-01
  2.92016179e-03 -9.49475587e-04  1.26381593e-03  4.20750667e-03 -1.39910051e-03
 -3.13187695e-03 -2.95763933e-03 -1.67052123e-01 -5.86242383e-03  8.90747213e-04
  1.00369057e-02 -4.01183244e-04  7.98140713e-02 -1.69477791e-01  7.65956898e-04
  1.91076939e-03 -3.74564356e-04 -2.14505908e-04  7.24332296e-03 -4.51099814e-03
  2.06906745e-03 -2.04795357e-01 -6.87928416e-03 -1.54576392e-03 -1.19602922e-02
 -6.47947889e-04 -9.79728972e-02  2.02612910e-01 -4.00533703e-04 -1.24113173e-03
  2.58097435e-03  6.61065210e-03  1.79172441e-03 -3.62461234e-03  4.66463157e-03
  4.26433007e-02  3.15099422e-02  1.01720417e-02 -5.84284357e-02 -1.16354695e-03
 -6.50499434e-01 -4.55342212e-01  5.75842063e-03 -5.06011143e-03  3.18164459e-04
  9.33161260e-04  7.27181628e-05  1.19400701e-04  1.92452097e-04 -4.74493123e-03
 -4.26009248e-04 -7.60400878e-04  1.48067603e-02 -6.15133043e-04 -4.11539520e-01
  6.10566550e-01  4.85789078e-04 -7.72021270e-04  1.82505945e-04  4.91772840e-04
 -1.20316720e-03 -1.54798172e-03  4.56191414e-04  3.58742956e-02  8.80385705e-04
 -6.95004371e-04 -9.77964623e-02  1.12048791e-03 -1.26882829e-01  3.89425604e-01
 -3.63084269e-04 -7.59558883e-04 -1.47741515e-03 -2.98998059e-03  6.43462183e-03
  1.54022257e-03  1.77064088e-03 -3.05104265e-02 -2.26714601e-03  2.74123070e-03
  8.23423462e-02 -2.22581582e-04 -4.65032987e-01  2.57233975e-01 -3.19837782e-05
 -7.20105094e-04 -1.70700406e-03 -4.06651049e-03 -7.01076703e-04 -4.51341899e-04
  5.59067134e-03 -2.17133085e-03 -1.05407679e-04 -1.14869723e-03  2.01225192e-03
 -2.59286836e-05 -7.87768082e-02  9.78410773e-02  6.63172701e-04 -1.50252249e-03
 -8.27744083e-04 -2.00802834e-03  3.20865293e-03 -3.83265465e-03  2.25041663e-03
  7.49299206e-02  6.56206227e-04 -4.61278867e-03 -1.46461913e-01  4.68674624e-04
  4.99579819e-01  2.91084721e-01 -1.13460071e-03 -9.62419608e-04 -7.75181441e-04
 -2.05107632e-03  1.06444753e-03  1.67771372e-03 -1.04958496e-03  8.77673893e-02
 -2.15455720e-03  6.56342335e-04 -1.60520246e-01  5.17628007e-04 -5.02103976e-01
  2.87566989e-01  8.85793021e-04 -9.52645008e-04  8.81105223e-05  2.90088690e-05
 -6.66819711e-04  3.77981081e-04 -1.37483443e-03  8.05112897e-02 -1.59634818e-03
 -1.12770002e-03 -1.52847762e-01 -3.38023511e-04 -1.58666454e-03 -5.77971316e-01
 -4.44269005e-04 -6.37589352e-04 -1.27845278e-03 -3.08381063e-03  3.67238840e-03
 -3.59324004e-03 -4.90289281e-03  3.29037317e-01  2.40215702e-03  4.46454939e-03
 -2.56199390e-03  1.54156370e-03  4.46884063e-04 -3.60035900e-04 -8.28977898e-04
 -1.78762116e-03 -1.97270637e-01 -4.59133243e-01  6.93597538e-01  2.40480917e-02
  1.54035605e-02 -7.97876178e-03 -2.40096283e-01 -1.44479650e-01  3.63613263e-03
  2.58951922e-01  9.25069306e-04 -7.86073082e-04 -1.69044556e-01 -2.99246214e-01
 -2.03747964e-01 -4.73695148e-01  7.10453807e-01 -6.89016173e-02  2.75798019e-02
  2.85533524e-04  2.71738387e-01 -1.50463446e-01 -8.44646149e-03  2.63220625e-01
  4.86398160e-04 -1.34769734e-05 -1.78255055e-01  3.06371389e-01 -1.97040128e-01
 -4.63683587e-01  6.41523450e-01 -2.54864602e-02 -4.20606085e-02 -4.49929492e-03
  2.77443940e-02  2.72836827e-01 -3.36506242e-03  2.59185039e-01  4.58648595e-04
  1.93881971e-03  3.50133221e-01 -3.93105577e-03 -3.85295078e-01 -7.62313802e-01
  5.27146448e-02 -2.69944747e-02 -3.89672952e-03  9.45004799e-04  2.55858084e-02
 -4.37441451e-02  1.78027401e-02  2.93215331e-01 -3.06342993e-03 -2.06586460e-03
 -3.34720003e-02 -3.31427894e-03  1.09987473e-02  1.65760525e-01  7.33625737e-01
 -4.09167381e-01 -3.15779676e-01 -2.40309746e-03 -3.37745968e-01 -1.35652599e-01
 -3.59995353e-02 -2.50846034e-03 -2.72005020e-03 -3.13113625e-03 -3.34908172e-03
  1.84018953e-02 -6.11749011e-03 -7.06127457e-02 -2.84002269e-01 -9.97752121e-02
  2.63248188e-01 -2.30505555e-02 -1.63292309e-01  4.63693163e-03 -2.02169136e-02
  1.71736196e-03  1.01251758e-03  2.94688334e-03 -7.12406357e-03  3.15296899e-03
 -1.33573364e-03 -7.27506087e-02 -4.38513740e-01  1.28387413e-01 -1.78548180e-01
 -1.36574232e-02  2.01105880e-02 -2.68783168e-01 -2.84711392e-02 -5.25615676e-03
  3.41760672e-05  1.53894659e-03 -8.64323394e-03 -9.13230188e-03 -3.69272564e-03
 -4.31573612e-02  2.79022842e-03 -1.23407677e+00 -7.71141520e-01  2.87115180e-02
 -2.52934258e-02 -7.04599948e-02  8.73515206e-02 -1.42747571e-02 -8.37141121e-03
 -1.81481223e-03 -2.97506299e-01 -3.24702550e-01  5.49409669e-03  1.87132825e-02
  6.42228793e-03 -2.51540866e-02  6.79967277e-02  3.08237238e-01  1.27502453e-02
 -8.29451794e-02  1.51610269e-02  2.93096923e-03  1.84312445e-02  8.59740303e-03
  3.99571688e-03 -1.04289098e-02  5.41595772e-03 -8.45784846e-03 -1.27684821e-01
  1.48888473e-03  2.12863172e-02  2.06468519e-01 -4.57600670e-02  5.02765430e-02
  1.15784511e-01  1.86455162e-03 -3.07238697e-02  1.97675464e-02 -1.62457126e-04
  4.08354911e-03 -8.35316927e-03 -1.95996679e-02  8.28646599e-02  3.26207740e-02
 -6.00085560e-02  2.69037644e-01 -7.91565189e-03  4.82208738e-02  5.28047120e-02
  3.50512950e-03  1.10989622e-03 -3.24007384e-02 -5.83312418e-03  6.02012531e-03
  7.38038012e-03  4.34580542e-02  1.45393299e-02 -8.61117724e-02 -6.18694524e-03
 -9.99268453e-01 -8.83799430e-02  9.66201452e-02  1.26412485e-01  1.45683257e-02
 -1.58410796e-02  4.07657298e-04  8.07810992e-02 -2.09138712e-02  2.02766764e-02
  6.51308677e-02  2.58298692e-01 -2.76260124e-01  2.18350176e-01 -1.21152110e-02
 -1.19415937e-01  1.46227250e-01 -3.58726941e-03  4.80619460e-03 -7.08534099e-04
 -8.97777121e-04 -2.15301797e-01  9.09376396e-02 -6.39887080e-02 -1.64680476e-01
 -4.95821447e-01 -1.74507821e-01  1.60826582e-01 -9.35208326e-03 -4.60345620e-02
  7.60331043e-02 -4.29659565e-03 -1.80805805e-02  1.05968507e-03  2.18758862e-03
  1.88025542e-02 -1.12256511e-01  4.30067853e-02  1.09343742e-01  2.91820196e-01
 -3.42726216e-01  1.45057022e-01 -5.97926332e-03 -5.86829115e-02  4.18944322e-02