
Host: OptiPlex-Tower-Plus-7020

Timers On : Fri Sep  5 18:37:22 2025
Timers Off: Fri Sep  5 18:54:17 2025

Wall Time:     1014.60 seconds

                                                       Time (seconds)
Module                                       User      System        Wall        Calls

--------------------------------------------------------------------------------------

**************************************************************************************
